+ 0.3 1 2 cbr 210 ------- 2 1.0 6.0 0 0
- 0.3 1 2 cbr 210 ------- 2 1.0 6.0 0 0
+ 0.30375 1 2 cbr 210 ------- 2 1.0 6.0 1 1
- 0.30375 1 2 cbr 210 ------- 2 1.0 6.0 1 1
+ 0.3075 1 2 cbr 210 ------- 2 1.0 6.0 2 2
- 0.3075 1 2 cbr 210 ------- 2 1.0 6.0 2 2
+ 0.31125 1 2 cbr 210 ------- 2 1.0 6.0 3 3
- 0.31125 1 2 cbr 210 ------- 2 1.0 6.0 3 3
r 0.31168 1 2 cbr 210 ------- 2 1.0 6.0 0 0
+ 0.31168 2 3 cbr 210 ------- 2 1.0 6.0 0 0
- 0.31168 2 3 cbr 210 ------- 2 1.0 6.0 0 0
+ 0.315 1 2 cbr 210 ------- 2 1.0 6.0 4 4
- 0.315 1 2 cbr 210 ------- 2 1.0 6.0 4 4
r 0.31543 1 2 cbr 210 ------- 2 1.0 6.0 1 1
+ 0.31543 2 3 cbr 210 ------- 2 1.0 6.0 1 1
- 0.31728 2 3 cbr 210 ------- 2 1.0 6.0 1 1
+ 0.31875 1 2 cbr 210 ------- 2 1.0 6.0 5 5
- 0.31875 1 2 cbr 210 ------- 2 1.0 6.0 5 5
r 0.31918 1 2 cbr 210 ------- 2 1.0 6.0 2 2
+ 0.31918 2 3 cbr 210 ------- 2 1.0 6.0 2 2
+ 0.3225 1 2 cbr 210 ------- 2 1.0 6.0 6 6
- 0.3225 1 2 cbr 210 ------- 2 1.0 6.0 6 6
- 0.32288 2 3 cbr 210 ------- 2 1.0 6.0 2 2
r 0.32293 1 2 cbr 210 ------- 2 1.0 6.0 3 3
+ 0.32293 2 3 cbr 210 ------- 2 1.0 6.0 3 3
+ 0.32625 1 2 cbr 210 ------- 2 1.0 6.0 7 7
- 0.32625 1 2 cbr 210 ------- 2 1.0 6.0 7 7
r 0.32668 1 2 cbr 210 ------- 2 1.0 6.0 4 4
+ 0.32668 2 3 cbr 210 ------- 2 1.0 6.0 4 4
- 0.32848 2 3 cbr 210 ------- 2 1.0 6.0 3 3
+ 0.33 1 2 cbr 210 ------- 2 1.0 6.0 8 8
- 0.33 1 2 cbr 210 ------- 2 1.0 6.0 8 8
r 0.33043 1 2 cbr 210 ------- 2 1.0 6.0 5 5
+ 0.33043 2 3 cbr 210 ------- 2 1.0 6.0 5 5
+ 0.33375 1 2 cbr 210 ------- 2 1.0 6.0 9 9
- 0.33375 1 2 cbr 210 ------- 2 1.0 6.0 9 9
- 0.33408 2 3 cbr 210 ------- 2 1.0 6.0 4 4
r 0.33418 1 2 cbr 210 ------- 2 1.0 6.0 6 6
+ 0.33418 2 3 cbr 210 ------- 2 1.0 6.0 6 6
+ 0.3375 1 2 cbr 210 ------- 2 1.0 6.0 10 10
- 0.3375 1 2 cbr 210 ------- 2 1.0 6.0 10 10
r 0.33793 1 2 cbr 210 ------- 2 1.0 6.0 7 7
+ 0.33793 2 3 cbr 210 ------- 2 1.0 6.0 7 7
- 0.33968 2 3 cbr 210 ------- 2 1.0 6.0 5 5
+ 0.34125 1 2 cbr 210 ------- 2 1.0 6.0 11 11
- 0.34125 1 2 cbr 210 ------- 2 1.0 6.0 11 11
r 0.34168 1 2 cbr 210 ------- 2 1.0 6.0 8 8
+ 0.34168 2 3 cbr 210 ------- 2 1.0 6.0 8 8
+ 0.345 1 2 cbr 210 ------- 2 1.0 6.0 12 12
- 0.345 1 2 cbr 210 ------- 2 1.0 6.0 12 12
- 0.34528 2 3 cbr 210 ------- 2 1.0 6.0 6 6
r 0.34543 1 2 cbr 210 ------- 2 1.0 6.0 9 9
+ 0.34543 2 3 cbr 210 ------- 2 1.0 6.0 9 9
+ 0.34875 1 2 cbr 210 ------- 2 1.0 6.0 13 13
- 0.34875 1 2 cbr 210 ------- 2 1.0 6.0 13 13
r 0.34918 1 2 cbr 210 ------- 2 1.0 6.0 10 10
+ 0.34918 2 3 cbr 210 ------- 2 1.0 6.0 10 10
- 0.35088 2 3 cbr 210 ------- 2 1.0 6.0 7 7
+ 0.3525 1 2 cbr 210 ------- 2 1.0 6.0 14 14
- 0.3525 1 2 cbr 210 ------- 2 1.0 6.0 14 14
r 0.35293 1 2 cbr 210 ------- 2 1.0 6.0 11 11
+ 0.35293 2 3 cbr 210 ------- 2 1.0 6.0 11 11
+ 0.35625 1 2 cbr 210 ------- 2 1.0 6.0 15 15
- 0.35625 1 2 cbr 210 ------- 2 1.0 6.0 15 15
- 0.35648 2 3 cbr 210 ------- 2 1.0 6.0 8 8
r 0.35668 1 2 cbr 210 ------- 2 1.0 6.0 12 12
+ 0.35668 2 3 cbr 210 ------- 2 1.0 6.0 12 12
+ 0.36 1 2 cbr 210 ------- 2 1.0 6.0 16 16
- 0.36 1 2 cbr 210 ------- 2 1.0 6.0 16 16
r 0.36043 1 2 cbr 210 ------- 2 1.0 6.0 13 13
+ 0.36043 2 3 cbr 210 ------- 2 1.0 6.0 13 13
- 0.36208 2 3 cbr 210 ------- 2 1.0 6.0 9 9
+ 0.36375 1 2 cbr 210 ------- 2 1.0 6.0 17 17
- 0.36375 1 2 cbr 210 ------- 2 1.0 6.0 17 17
r 0.36418 1 2 cbr 210 ------- 2 1.0 6.0 14 14
+ 0.36418 2 3 cbr 210 ------- 2 1.0 6.0 14 14
+ 0.3675 1 2 cbr 210 ------- 2 1.0 6.0 18 18
- 0.3675 1 2 cbr 210 ------- 2 1.0 6.0 18 18
- 0.36768 2 3 cbr 210 ------- 2 1.0 6.0 10 10
r 0.36793 1 2 cbr 210 ------- 2 1.0 6.0 15 15
+ 0.36793 2 3 cbr 210 ------- 2 1.0 6.0 15 15
+ 0.37125 1 2 cbr 210 ------- 2 1.0 6.0 19 19
- 0.37125 1 2 cbr 210 ------- 2 1.0 6.0 19 19
r 0.37168 1 2 cbr 210 ------- 2 1.0 6.0 16 16
+ 0.37168 2 3 cbr 210 ------- 2 1.0 6.0 16 16
- 0.37328 2 3 cbr 210 ------- 2 1.0 6.0 11 11
+ 0.375 1 2 cbr 210 ------- 2 1.0 6.0 20 20
- 0.375 1 2 cbr 210 ------- 2 1.0 6.0 20 20
r 0.37543 1 2 cbr 210 ------- 2 1.0 6.0 17 17
+ 0.37543 2 3 cbr 210 ------- 2 1.0 6.0 17 17
+ 0.37875 1 2 cbr 210 ------- 2 1.0 6.0 21 21
- 0.37875 1 2 cbr 210 ------- 2 1.0 6.0 21 21
- 0.37888 2 3 cbr 210 ------- 2 1.0 6.0 12 12
r 0.37918 1 2 cbr 210 ------- 2 1.0 6.0 18 18
+ 0.37918 2 3 cbr 210 ------- 2 1.0 6.0 18 18
+ 0.3825 1 2 cbr 210 ------- 2 1.0 6.0 22 22
- 0.3825 1 2 cbr 210 ------- 2 1.0 6.0 22 22
r 0.38293 1 2 cbr 210 ------- 2 1.0 6.0 19 19
+ 0.38293 2 3 cbr 210 ------- 2 1.0 6.0 19 19
- 0.38448 2 3 cbr 210 ------- 2 1.0 6.0 13 13
+ 0.38625 1 2 cbr 210 ------- 2 1.0 6.0 23 23
- 0.38625 1 2 cbr 210 ------- 2 1.0 6.0 23 23
r 0.38668 1 2 cbr 210 ------- 2 1.0 6.0 20 20
+ 0.38668 2 3 cbr 210 ------- 2 1.0 6.0 20 20
+ 0.39 1 2 cbr 210 ------- 2 1.0 6.0 24 24
- 0.39 1 2 cbr 210 ------- 2 1.0 6.0 24 24
- 0.39008 2 3 cbr 210 ------- 2 1.0 6.0 14 14
r 0.39043 1 2 cbr 210 ------- 2 1.0 6.0 21 21
+ 0.39043 2 3 cbr 210 ------- 2 1.0 6.0 21 21
+ 0.39375 1 2 cbr 210 ------- 2 1.0 6.0 25 25
- 0.39375 1 2 cbr 210 ------- 2 1.0 6.0 25 25
r 0.39418 1 2 cbr 210 ------- 2 1.0 6.0 22 22
+ 0.39418 2 3 cbr 210 ------- 2 1.0 6.0 22 22
- 0.39568 2 3 cbr 210 ------- 2 1.0 6.0 15 15
+ 0.3975 1 2 cbr 210 ------- 2 1.0 6.0 26 26
- 0.3975 1 2 cbr 210 ------- 2 1.0 6.0 26 26
r 0.39793 1 2 cbr 210 ------- 2 1.0 6.0 23 23
+ 0.39793 2 3 cbr 210 ------- 2 1.0 6.0 23 23
+ 0.40125 1 2 cbr 210 ------- 2 1.0 6.0 27 27
- 0.40125 1 2 cbr 210 ------- 2 1.0 6.0 27 27
- 0.40128 2 3 cbr 210 ------- 2 1.0 6.0 16 16
r 0.40168 1 2 cbr 210 ------- 2 1.0 6.0 24 24
+ 0.40168 2 3 cbr 210 ------- 2 1.0 6.0 24 24
+ 0.405 1 2 cbr 210 ------- 2 1.0 6.0 28 28
- 0.405 1 2 cbr 210 ------- 2 1.0 6.0 28 28
r 0.40543 1 2 cbr 210 ------- 2 1.0 6.0 25 25
+ 0.40543 2 3 cbr 210 ------- 2 1.0 6.0 25 25
- 0.40688 2 3 cbr 210 ------- 2 1.0 6.0 17 17
+ 0.40875 1 2 cbr 210 ------- 2 1.0 6.0 29 29
- 0.40875 1 2 cbr 210 ------- 2 1.0 6.0 29 29
r 0.40918 1 2 cbr 210 ------- 2 1.0 6.0 26 26
+ 0.40918 2 3 cbr 210 ------- 2 1.0 6.0 26 26
- 0.41248 2 3 cbr 210 ------- 2 1.0 6.0 18 18
+ 0.4125 1 2 cbr 210 ------- 2 1.0 6.0 30 30
- 0.4125 1 2 cbr 210 ------- 2 1.0 6.0 30 30
r 0.41293 1 2 cbr 210 ------- 2 1.0 6.0 27 27
+ 0.41293 2 3 cbr 210 ------- 2 1.0 6.0 27 27
+ 0.41625 1 2 cbr 210 ------- 2 1.0 6.0 31 31
- 0.41625 1 2 cbr 210 ------- 2 1.0 6.0 31 31
r 0.41668 1 2 cbr 210 ------- 2 1.0 6.0 28 28
+ 0.41668 2 3 cbr 210 ------- 2 1.0 6.0 28 28
r 0.41728 2 3 cbr 210 ------- 2 1.0 6.0 0 0
h 0.41728 3 7 cbr 210 ------- 2 1.0 6.0 0 0
- 0.41808 2 3 cbr 210 ------- 2 1.0 6.0 19 19
+ 0.42 1 2 cbr 210 ------- 2 1.0 6.0 32 32
- 0.42 1 2 cbr 210 ------- 2 1.0 6.0 32 32
r 0.42043 1 2 cbr 210 ------- 2 1.0 6.0 29 29
+ 0.42043 2 3 cbr 210 ------- 2 1.0 6.0 29 29
r 0.42288 2 3 cbr 210 ------- 2 1.0 6.0 1 1
h 0.42288 3 7 cbr 210 ------- 2 1.0 6.0 1 1
- 0.42368 2 3 cbr 210 ------- 2 1.0 6.0 20 20
+ 0.42375 1 2 cbr 210 ------- 2 1.0 6.0 33 33
- 0.42375 1 2 cbr 210 ------- 2 1.0 6.0 33 33
r 0.42418 1 2 cbr 210 ------- 2 1.0 6.0 30 30
+ 0.42418 2 3 cbr 210 ------- 2 1.0 6.0 30 30
+ 0.4275 1 2 cbr 210 ------- 2 1.0 6.0 34 34
- 0.4275 1 2 cbr 210 ------- 2 1.0 6.0 34 34
r 0.42793 1 2 cbr 210 ------- 2 1.0 6.0 31 31
+ 0.42793 2 3 cbr 210 ------- 2 1.0 6.0 31 31
r 0.42848 2 3 cbr 210 ------- 2 1.0 6.0 2 2
h 0.42848 3 7 cbr 210 ------- 2 1.0 6.0 2 2
- 0.42928 2 3 cbr 210 ------- 2 1.0 6.0 21 21
+ 0.43125 1 2 cbr 210 ------- 2 1.0 6.0 35 35
- 0.43125 1 2 cbr 210 ------- 2 1.0 6.0 35 35
r 0.43168 1 2 cbr 210 ------- 2 1.0 6.0 32 32
+ 0.43168 2 3 cbr 210 ------- 2 1.0 6.0 32 32
r 0.43408 2 3 cbr 210 ------- 2 1.0 6.0 3 3
h 0.43408 3 7 cbr 210 ------- 2 1.0 6.0 3 3
- 0.43488 2 3 cbr 210 ------- 2 1.0 6.0 22 22
+ 0.435 1 2 cbr 210 ------- 2 1.0 6.0 36 36
- 0.435 1 2 cbr 210 ------- 2 1.0 6.0 36 36
r 0.43543 1 2 cbr 210 ------- 2 1.0 6.0 33 33
+ 0.43543 2 3 cbr 210 ------- 2 1.0 6.0 33 33
+ 0.43875 1 2 cbr 210 ------- 2 1.0 6.0 37 37
- 0.43875 1 2 cbr 210 ------- 2 1.0 6.0 37 37
r 0.43918 1 2 cbr 210 ------- 2 1.0 6.0 34 34
+ 0.43918 2 3 cbr 210 ------- 2 1.0 6.0 34 34
r 0.43968 2 3 cbr 210 ------- 2 1.0 6.0 4 4
h 0.43968 3 7 cbr 210 ------- 2 1.0 6.0 4 4
- 0.44048 2 3 cbr 210 ------- 2 1.0 6.0 23 23
+ 0.4425 1 2 cbr 210 ------- 2 1.0 6.0 38 38
- 0.4425 1 2 cbr 210 ------- 2 1.0 6.0 38 38
r 0.44293 1 2 cbr 210 ------- 2 1.0 6.0 35 35
+ 0.44293 2 3 cbr 210 ------- 2 1.0 6.0 35 35
r 0.44528 2 3 cbr 210 ------- 2 1.0 6.0 5 5
h 0.44528 3 7 cbr 210 ------- 2 1.0 6.0 5 5
- 0.44608 2 3 cbr 210 ------- 2 1.0 6.0 24 24
+ 0.44625 1 2 cbr 210 ------- 2 1.0 6.0 39 39
- 0.44625 1 2 cbr 210 ------- 2 1.0 6.0 39 39
r 0.44668 1 2 cbr 210 ------- 2 1.0 6.0 36 36
+ 0.44668 2 3 cbr 210 ------- 2 1.0 6.0 36 36
+ 0.45 1 2 cbr 210 ------- 2 1.0 6.0 40 40
- 0.45 1 2 cbr 210 ------- 2 1.0 6.0 40 40
r 0.45043 1 2 cbr 210 ------- 2 1.0 6.0 37 37
+ 0.45043 2 3 cbr 210 ------- 2 1.0 6.0 37 37
r 0.45088 2 3 cbr 210 ------- 2 1.0 6.0 6 6
h 0.45088 3 7 cbr 210 ------- 2 1.0 6.0 6 6
- 0.45168 2 3 cbr 210 ------- 2 1.0 6.0 25 25
+ 0.45375 1 2 cbr 210 ------- 2 1.0 6.0 41 41
- 0.45375 1 2 cbr 210 ------- 2 1.0 6.0 41 41
r 0.45418 1 2 cbr 210 ------- 2 1.0 6.0 38 38
+ 0.45418 2 3 cbr 210 ------- 2 1.0 6.0 38 38
r 0.45648 2 3 cbr 210 ------- 2 1.0 6.0 7 7
h 0.45648 3 7 cbr 210 ------- 2 1.0 6.0 7 7
- 0.45728 2 3 cbr 210 ------- 2 1.0 6.0 26 26
+ 0.45728 3 7 cbr 210 ------- 2 1.0 6.0 0 0
- 0.45728 3 7 cbr 210 ------- 2 1.0 6.0 0 0
d 0.457284 5 7 cbr 210 ------- 2 1.0 6.0 0 0
d 0.457284 4 7 cbr 210 ------- 2 1.0 6.0 0 0
+ 0.4575 1 2 cbr 210 ------- 2 1.0 6.0 42 42
- 0.4575 1 2 cbr 210 ------- 2 1.0 6.0 42 42
r 0.45793 1 2 cbr 210 ------- 2 1.0 6.0 39 39
+ 0.45793 2 3 cbr 210 ------- 2 1.0 6.0 39 39
+ 0.46125 1 2 cbr 210 ------- 2 1.0 6.0 43 43
- 0.46125 1 2 cbr 210 ------- 2 1.0 6.0 43 43
r 0.46168 1 2 cbr 210 ------- 2 1.0 6.0 40 40
+ 0.46168 2 3 cbr 210 ------- 2 1.0 6.0 40 40
r 0.46208 2 3 cbr 210 ------- 2 1.0 6.0 8 8
h 0.46208 3 7 cbr 210 ------- 2 1.0 6.0 8 8
- 0.46288 2 3 cbr 210 ------- 2 1.0 6.0 27 27
+ 0.46288 3 7 cbr 210 ------- 2 1.0 6.0 1 1
- 0.46288 3 7 cbr 210 ------- 2 1.0 6.0 1 1
d 0.462884 5 7 cbr 210 ------- 2 1.0 6.0 1 1
d 0.462884 4 7 cbr 210 ------- 2 1.0 6.0 1 1
+ 0.465 1 2 cbr 210 ------- 2 1.0 6.0 44 44
- 0.465 1 2 cbr 210 ------- 2 1.0 6.0 44 44
r 0.46543 1 2 cbr 210 ------- 2 1.0 6.0 41 41
+ 0.46543 2 3 cbr 210 ------- 2 1.0 6.0 41 41
r 0.46768 2 3 cbr 210 ------- 2 1.0 6.0 9 9
h 0.46768 3 7 cbr 210 ------- 2 1.0 6.0 9 9
- 0.46848 2 3 cbr 210 ------- 2 1.0 6.0 28 28
+ 0.46848 3 7 cbr 210 ------- 2 1.0 6.0 2 2
- 0.46848 3 7 cbr 210 ------- 2 1.0 6.0 2 2
d 0.468484 5 7 cbr 210 ------- 2 1.0 6.0 2 2
d 0.468484 4 7 cbr 210 ------- 2 1.0 6.0 2 2
+ 0.46875 1 2 cbr 210 ------- 2 1.0 6.0 45 45
- 0.46875 1 2 cbr 210 ------- 2 1.0 6.0 45 45
r 0.46918 1 2 cbr 210 ------- 2 1.0 6.0 42 42
+ 0.46918 2 3 cbr 210 ------- 2 1.0 6.0 42 42
+ 0.4725 1 2 cbr 210 ------- 2 1.0 6.0 46 46
- 0.4725 1 2 cbr 210 ------- 2 1.0 6.0 46 46
r 0.47293 1 2 cbr 210 ------- 2 1.0 6.0 43 43
+ 0.47293 2 3 cbr 210 ------- 2 1.0 6.0 43 43
r 0.47328 2 3 cbr 210 ------- 2 1.0 6.0 10 10
h 0.47328 3 7 cbr 210 ------- 2 1.0 6.0 10 10
- 0.47408 2 3 cbr 210 ------- 2 1.0 6.0 29 29
+ 0.47408 3 7 cbr 210 ------- 2 1.0 6.0 3 3
- 0.47408 3 7 cbr 210 ------- 2 1.0 6.0 3 3
d 0.474084 5 7 cbr 210 ------- 2 1.0 6.0 3 3
d 0.474084 4 7 cbr 210 ------- 2 1.0 6.0 3 3
+ 0.47625 1 2 cbr 210 ------- 2 1.0 6.0 47 47
- 0.47625 1 2 cbr 210 ------- 2 1.0 6.0 47 47
r 0.47668 1 2 cbr 210 ------- 2 1.0 6.0 44 44
+ 0.47668 2 3 cbr 210 ------- 2 1.0 6.0 44 44
r 0.47888 2 3 cbr 210 ------- 2 1.0 6.0 11 11
h 0.47888 3 7 cbr 210 ------- 2 1.0 6.0 11 11
- 0.47968 2 3 cbr 210 ------- 2 1.0 6.0 30 30
+ 0.47968 3 7 cbr 210 ------- 2 1.0 6.0 4 4
- 0.47968 3 7 cbr 210 ------- 2 1.0 6.0 4 4
d 0.479684 5 7 cbr 210 ------- 2 1.0 6.0 4 4
d 0.479684 4 7 cbr 210 ------- 2 1.0 6.0 4 4
+ 0.48 1 2 cbr 210 ------- 2 1.0 6.0 48 48
- 0.48 1 2 cbr 210 ------- 2 1.0 6.0 48 48
r 0.48043 1 2 cbr 210 ------- 2 1.0 6.0 45 45
+ 0.48043 2 3 cbr 210 ------- 2 1.0 6.0 45 45
+ 0.48375 1 2 cbr 210 ------- 2 1.0 6.0 49 49
- 0.48375 1 2 cbr 210 ------- 2 1.0 6.0 49 49
r 0.48418 1 2 cbr 210 ------- 2 1.0 6.0 46 46
+ 0.48418 2 3 cbr 210 ------- 2 1.0 6.0 46 46
r 0.48448 2 3 cbr 210 ------- 2 1.0 6.0 12 12
h 0.48448 3 7 cbr 210 ------- 2 1.0 6.0 12 12
- 0.48528 2 3 cbr 210 ------- 2 1.0 6.0 31 31
+ 0.48528 3 7 cbr 210 ------- 2 1.0 6.0 5 5
- 0.48528 3 7 cbr 210 ------- 2 1.0 6.0 5 5
d 0.485284 5 7 cbr 210 ------- 2 1.0 6.0 5 5
d 0.485284 4 7 cbr 210 ------- 2 1.0 6.0 5 5
+ 0.4875 1 2 cbr 210 ------- 2 1.0 6.0 50 50
- 0.4875 1 2 cbr 210 ------- 2 1.0 6.0 50 50
r 0.48793 1 2 cbr 210 ------- 2 1.0 6.0 47 47
+ 0.48793 2 3 cbr 210 ------- 2 1.0 6.0 47 47
r 0.49008 2 3 cbr 210 ------- 2 1.0 6.0 13 13
h 0.49008 3 7 cbr 210 ------- 2 1.0 6.0 13 13
- 0.49088 2 3 cbr 210 ------- 2 1.0 6.0 32 32
+ 0.49088 3 7 cbr 210 ------- 2 1.0 6.0 6 6
- 0.49088 3 7 cbr 210 ------- 2 1.0 6.0 6 6
d 0.490884 5 7 cbr 210 ------- 2 1.0 6.0 6 6
d 0.490884 4 7 cbr 210 ------- 2 1.0 6.0 6 6
+ 0.49125 1 2 cbr 210 ------- 2 1.0 6.0 51 51
- 0.49125 1 2 cbr 210 ------- 2 1.0 6.0 51 51
r 0.49168 1 2 cbr 210 ------- 2 1.0 6.0 48 48
+ 0.49168 2 3 cbr 210 ------- 2 1.0 6.0 48 48
+ 0.495 1 2 cbr 210 ------- 2 1.0 6.0 52 52
- 0.495 1 2 cbr 210 ------- 2 1.0 6.0 52 52
r 0.49543 1 2 cbr 210 ------- 2 1.0 6.0 49 49
+ 0.49543 2 3 cbr 210 ------- 2 1.0 6.0 49 49
r 0.49568 2 3 cbr 210 ------- 2 1.0 6.0 14 14
h 0.49568 3 7 cbr 210 ------- 2 1.0 6.0 14 14
- 0.49648 2 3 cbr 210 ------- 2 1.0 6.0 33 33
+ 0.49648 3 7 cbr 210 ------- 2 1.0 6.0 7 7
- 0.49648 3 7 cbr 210 ------- 2 1.0 6.0 7 7
d 0.496484 5 7 cbr 210 ------- 2 1.0 6.0 7 7
d 0.496484 4 7 cbr 210 ------- 2 1.0 6.0 7 7
r 0.497284 7 6 cbr 210 ------- 2 1.0 6.0 0 0
+ 0.49875 1 2 cbr 210 ------- 2 1.0 6.0 53 53
- 0.49875 1 2 cbr 210 ------- 2 1.0 6.0 53 53
r 0.49918 1 2 cbr 210 ------- 2 1.0 6.0 50 50
+ 0.49918 2 3 cbr 210 ------- 2 1.0 6.0 50 50
r 0.50128 2 3 cbr 210 ------- 2 1.0 6.0 15 15
h 0.50128 3 7 cbr 210 ------- 2 1.0 6.0 15 15
- 0.50208 2 3 cbr 210 ------- 2 1.0 6.0 34 34
+ 0.50208 3 7 cbr 210 ------- 2 1.0 6.0 8 8
- 0.50208 3 7 cbr 210 ------- 2 1.0 6.0 8 8
d 0.502084 5 7 cbr 210 ------- 2 1.0 6.0 8 8
d 0.502084 4 7 cbr 210 ------- 2 1.0 6.0 8 8
+ 0.5025 1 2 cbr 210 ------- 2 1.0 6.0 54 54
- 0.5025 1 2 cbr 210 ------- 2 1.0 6.0 54 54
r 0.502884 7 6 cbr 210 ------- 2 1.0 6.0 1 1
r 0.50293 1 2 cbr 210 ------- 2 1.0 6.0 51 51
+ 0.50293 2 3 cbr 210 ------- 2 1.0 6.0 51 51
+ 0.50625 1 2 cbr 210 ------- 2 1.0 6.0 55 55
- 0.50625 1 2 cbr 210 ------- 2 1.0 6.0 55 55
r 0.50668 1 2 cbr 210 ------- 2 1.0 6.0 52 52
+ 0.50668 2 3 cbr 210 ------- 2 1.0 6.0 52 52
r 0.50688 2 3 cbr 210 ------- 2 1.0 6.0 16 16
h 0.50688 3 7 cbr 210 ------- 2 1.0 6.0 16 16
- 0.50768 2 3 cbr 210 ------- 2 1.0 6.0 35 35
+ 0.50768 3 7 cbr 210 ------- 2 1.0 6.0 9 9
- 0.50768 3 7 cbr 210 ------- 2 1.0 6.0 9 9
d 0.507684 5 7 cbr 210 ------- 2 1.0 6.0 9 9
d 0.507684 4 7 cbr 210 ------- 2 1.0 6.0 9 9
r 0.508484 7 6 cbr 210 ------- 2 1.0 6.0 2 2
+ 0.51 1 2 cbr 210 ------- 2 1.0 6.0 56 56
- 0.51 1 2 cbr 210 ------- 2 1.0 6.0 56 56
r 0.51043 1 2 cbr 210 ------- 2 1.0 6.0 53 53
+ 0.51043 2 3 cbr 210 ------- 2 1.0 6.0 53 53
r 0.51248 2 3 cbr 210 ------- 2 1.0 6.0 17 17
h 0.51248 3 7 cbr 210 ------- 2 1.0 6.0 17 17
+ 0.51328 3 7 cbr 210 ------- 2 1.0 6.0 10 10
- 0.51328 3 7 cbr 210 ------- 2 1.0 6.0 10 10
- 0.51328 2 3 cbr 210 ------- 2 1.0 6.0 36 36
d 0.513284 5 7 cbr 210 ------- 2 1.0 6.0 10 10
d 0.513284 4 7 cbr 210 ------- 2 1.0 6.0 10 10
+ 0.51375 1 2 cbr 210 ------- 2 1.0 6.0 57 57
- 0.51375 1 2 cbr 210 ------- 2 1.0 6.0 57 57
r 0.514084 7 6 cbr 210 ------- 2 1.0 6.0 3 3
r 0.51418 1 2 cbr 210 ------- 2 1.0 6.0 54 54
+ 0.51418 2 3 cbr 210 ------- 2 1.0 6.0 54 54
+ 0.5175 1 2 cbr 210 ------- 2 1.0 6.0 58 58
- 0.5175 1 2 cbr 210 ------- 2 1.0 6.0 58 58
r 0.51793 1 2 cbr 210 ------- 2 1.0 6.0 55 55
+ 0.51793 2 3 cbr 210 ------- 2 1.0 6.0 55 55
r 0.51808 2 3 cbr 210 ------- 2 1.0 6.0 18 18
h 0.51808 3 7 cbr 210 ------- 2 1.0 6.0 18 18
+ 0.51888 3 7 cbr 210 ------- 2 1.0 6.0 11 11
- 0.51888 3 7 cbr 210 ------- 2 1.0 6.0 11 11
- 0.51888 2 3 cbr 210 ------- 2 1.0 6.0 37 37
d 0.518884 5 7 cbr 210 ------- 2 1.0 6.0 11 11
d 0.518884 4 7 cbr 210 ------- 2 1.0 6.0 11 11
r 0.519684 7 6 cbr 210 ------- 2 1.0 6.0 4 4
+ 0.52125 1 2 cbr 210 ------- 2 1.0 6.0 59 59
- 0.52125 1 2 cbr 210 ------- 2 1.0 6.0 59 59
r 0.52168 1 2 cbr 210 ------- 2 1.0 6.0 56 56
+ 0.52168 2 3 cbr 210 ------- 2 1.0 6.0 56 56
r 0.52368 2 3 cbr 210 ------- 2 1.0 6.0 19 19
h 0.52368 3 7 cbr 210 ------- 2 1.0 6.0 19 19
+ 0.52448 3 7 cbr 210 ------- 2 1.0 6.0 12 12
- 0.52448 3 7 cbr 210 ------- 2 1.0 6.0 12 12
- 0.52448 2 3 cbr 210 ------- 2 1.0 6.0 38 38
d 0.524484 5 7 cbr 210 ------- 2 1.0 6.0 12 12
d 0.524484 4 7 cbr 210 ------- 2 1.0 6.0 12 12
+ 0.525 1 2 cbr 210 ------- 2 1.0 6.0 60 60
- 0.525 1 2 cbr 210 ------- 2 1.0 6.0 60 60
r 0.525284 7 6 cbr 210 ------- 2 1.0 6.0 5 5
r 0.52543 1 2 cbr 210 ------- 2 1.0 6.0 57 57
+ 0.52543 2 3 cbr 210 ------- 2 1.0 6.0 57 57
+ 0.52875 1 2 cbr 210 ------- 2 1.0 6.0 61 61
- 0.52875 1 2 cbr 210 ------- 2 1.0 6.0 61 61
r 0.52918 1 2 cbr 210 ------- 2 1.0 6.0 58 58
+ 0.52918 2 3 cbr 210 ------- 2 1.0 6.0 58 58
r 0.52928 2 3 cbr 210 ------- 2 1.0 6.0 20 20
h 0.52928 3 7 cbr 210 ------- 2 1.0 6.0 20 20
+ 0.53008 3 7 cbr 210 ------- 2 1.0 6.0 13 13
- 0.53008 3 7 cbr 210 ------- 2 1.0 6.0 13 13
- 0.53008 2 3 cbr 210 ------- 2 1.0 6.0 39 39
d 0.530084 5 7 cbr 210 ------- 2 1.0 6.0 13 13
d 0.530084 4 7 cbr 210 ------- 2 1.0 6.0 13 13
r 0.530884 7 6 cbr 210 ------- 2 1.0 6.0 6 6
+ 0.5325 1 2 cbr 210 ------- 2 1.0 6.0 62 62
- 0.5325 1 2 cbr 210 ------- 2 1.0 6.0 62 62
r 0.53293 1 2 cbr 210 ------- 2 1.0 6.0 59 59
+ 0.53293 2 3 cbr 210 ------- 2 1.0 6.0 59 59
r 0.53488 2 3 cbr 210 ------- 2 1.0 6.0 21 21
h 0.53488 3 7 cbr 210 ------- 2 1.0 6.0 21 21
+ 0.53568 3 7 cbr 210 ------- 2 1.0 6.0 14 14
- 0.53568 3 7 cbr 210 ------- 2 1.0 6.0 14 14
- 0.53568 2 3 cbr 210 ------- 2 1.0 6.0 40 40
d 0.535684 5 7 cbr 210 ------- 2 1.0 6.0 14 14
d 0.535684 4 7 cbr 210 ------- 2 1.0 6.0 14 14
+ 0.53625 1 2 cbr 210 ------- 2 1.0 6.0 63 63
- 0.53625 1 2 cbr 210 ------- 2 1.0 6.0 63 63
r 0.536484 7 6 cbr 210 ------- 2 1.0 6.0 7 7
r 0.53668 1 2 cbr 210 ------- 2 1.0 6.0 60 60
+ 0.53668 2 3 cbr 210 ------- 2 1.0 6.0 60 60
+ 0.54 1 2 cbr 210 ------- 2 1.0 6.0 64 64
- 0.54 1 2 cbr 210 ------- 2 1.0 6.0 64 64
r 0.54043 1 2 cbr 210 ------- 2 1.0 6.0 61 61
+ 0.54043 2 3 cbr 210 ------- 2 1.0 6.0 61 61
r 0.54048 2 3 cbr 210 ------- 2 1.0 6.0 22 22
h 0.54048 3 7 cbr 210 ------- 2 1.0 6.0 22 22
+ 0.54128 3 7 cbr 210 ------- 2 1.0 6.0 15 15
- 0.54128 3 7 cbr 210 ------- 2 1.0 6.0 15 15
- 0.54128 2 3 cbr 210 ------- 2 1.0 6.0 41 41
d 0.541284 5 7 cbr 210 ------- 2 1.0 6.0 15 15
d 0.541284 4 7 cbr 210 ------- 2 1.0 6.0 15 15
r 0.542084 7 6 cbr 210 ------- 2 1.0 6.0 8 8
+ 0.54375 1 2 cbr 210 ------- 2 1.0 6.0 65 65
- 0.54375 1 2 cbr 210 ------- 2 1.0 6.0 65 65
r 0.54418 1 2 cbr 210 ------- 2 1.0 6.0 62 62
+ 0.54418 2 3 cbr 210 ------- 2 1.0 6.0 62 62
r 0.54608 2 3 cbr 210 ------- 2 1.0 6.0 23 23
h 0.54608 3 7 cbr 210 ------- 2 1.0 6.0 23 23
+ 0.54688 3 7 cbr 210 ------- 2 1.0 6.0 16 16
- 0.54688 3 7 cbr 210 ------- 2 1.0 6.0 16 16
- 0.54688 2 3 cbr 210 ------- 2 1.0 6.0 42 42
d 0.546884 5 7 cbr 210 ------- 2 1.0 6.0 16 16
d 0.546884 4 7 cbr 210 ------- 2 1.0 6.0 16 16
+ 0.5475 1 2 cbr 210 ------- 2 1.0 6.0 66 66
- 0.5475 1 2 cbr 210 ------- 2 1.0 6.0 66 66
r 0.547684 7 6 cbr 210 ------- 2 1.0 6.0 9 9
r 0.54793 1 2 cbr 210 ------- 2 1.0 6.0 63 63
+ 0.54793 2 3 cbr 210 ------- 2 1.0 6.0 63 63
+ 0.55125 1 2 cbr 210 ------- 2 1.0 6.0 67 67
- 0.55125 1 2 cbr 210 ------- 2 1.0 6.0 67 67
r 0.55168 1 2 cbr 210 ------- 2 1.0 6.0 64 64
+ 0.55168 2 3 cbr 210 ------- 2 1.0 6.0 64 64
r 0.55168 2 3 cbr 210 ------- 2 1.0 6.0 24 24
h 0.55168 3 7 cbr 210 ------- 2 1.0 6.0 24 24
+ 0.55248 3 7 cbr 210 ------- 2 1.0 6.0 17 17
- 0.55248 3 7 cbr 210 ------- 2 1.0 6.0 17 17
- 0.55248 2 3 cbr 210 ------- 2 1.0 6.0 43 43
d 0.552484 5 7 cbr 210 ------- 2 1.0 6.0 17 17
d 0.552484 4 7 cbr 210 ------- 2 1.0 6.0 17 17
r 0.553284 7 6 cbr 210 ------- 2 1.0 6.0 10 10
+ 0.555 1 2 cbr 210 ------- 2 1.0 6.0 68 68
- 0.555 1 2 cbr 210 ------- 2 1.0 6.0 68 68
r 0.55543 1 2 cbr 210 ------- 2 1.0 6.0 65 65
+ 0.55543 2 3 cbr 210 ------- 2 1.0 6.0 65 65
r 0.55728 2 3 cbr 210 ------- 2 1.0 6.0 25 25
h 0.55728 3 7 cbr 210 ------- 2 1.0 6.0 25 25
+ 0.55808 3 7 cbr 210 ------- 2 1.0 6.0 18 18
- 0.55808 3 7 cbr 210 ------- 2 1.0 6.0 18 18
- 0.55808 2 3 cbr 210 ------- 2 1.0 6.0 44 44
d 0.558084 5 7 cbr 210 ------- 2 1.0 6.0 18 18
d 0.558084 4 7 cbr 210 ------- 2 1.0 6.0 18 18
+ 0.55875 1 2 cbr 210 ------- 2 1.0 6.0 69 69
- 0.55875 1 2 cbr 210 ------- 2 1.0 6.0 69 69
r 0.558884 7 6 cbr 210 ------- 2 1.0 6.0 11 11
r 0.55918 1 2 cbr 210 ------- 2 1.0 6.0 66 66
+ 0.55918 2 3 cbr 210 ------- 2 1.0 6.0 66 66
+ 0.5625 1 2 cbr 210 ------- 2 1.0 6.0 70 70
- 0.5625 1 2 cbr 210 ------- 2 1.0 6.0 70 70
r 0.56288 2 3 cbr 210 ------- 2 1.0 6.0 26 26
h 0.56288 3 7 cbr 210 ------- 2 1.0 6.0 26 26
r 0.56293 1 2 cbr 210 ------- 2 1.0 6.0 67 67
+ 0.56293 2 3 cbr 210 ------- 2 1.0 6.0 67 67
+ 0.56368 3 7 cbr 210 ------- 2 1.0 6.0 19 19
- 0.56368 3 7 cbr 210 ------- 2 1.0 6.0 19 19
- 0.56368 2 3 cbr 210 ------- 2 1.0 6.0 45 45
d 0.563684 5 7 cbr 210 ------- 2 1.0 6.0 19 19
d 0.563684 4 7 cbr 210 ------- 2 1.0 6.0 19 19
r 0.564484 7 6 cbr 210 ------- 2 1.0 6.0 12 12
+ 0.56625 1 2 cbr 210 ------- 2 1.0 6.0 71 71
- 0.56625 1 2 cbr 210 ------- 2 1.0 6.0 71 71
r 0.56668 1 2 cbr 210 ------- 2 1.0 6.0 68 68
+ 0.56668 2 3 cbr 210 ------- 2 1.0 6.0 68 68
r 0.56848 2 3 cbr 210 ------- 2 1.0 6.0 27 27
h 0.56848 3 7 cbr 210 ------- 2 1.0 6.0 27 27
+ 0.56928 3 7 cbr 210 ------- 2 1.0 6.0 20 20
- 0.56928 3 7 cbr 210 ------- 2 1.0 6.0 20 20
- 0.56928 2 3 cbr 210 ------- 2 1.0 6.0 46 46
d 0.569284 5 7 cbr 210 ------- 2 1.0 6.0 20 20
d 0.569284 4 7 cbr 210 ------- 2 1.0 6.0 20 20
+ 0.57 1 2 cbr 210 ------- 2 1.0 6.0 72 72
- 0.57 1 2 cbr 210 ------- 2 1.0 6.0 72 72
r 0.570084 7 6 cbr 210 ------- 2 1.0 6.0 13 13
r 0.57043 1 2 cbr 210 ------- 2 1.0 6.0 69 69
+ 0.57043 2 3 cbr 210 ------- 2 1.0 6.0 69 69
+ 0.57375 1 2 cbr 210 ------- 2 1.0 6.0 73 73
- 0.57375 1 2 cbr 210 ------- 2 1.0 6.0 73 73
r 0.57408 2 3 cbr 210 ------- 2 1.0 6.0 28 28
h 0.57408 3 7 cbr 210 ------- 2 1.0 6.0 28 28
r 0.57418 1 2 cbr 210 ------- 2 1.0 6.0 70 70
+ 0.57418 2 3 cbr 210 ------- 2 1.0 6.0 70 70
+ 0.57488 3 7 cbr 210 ------- 2 1.0 6.0 21 21
- 0.57488 3 7 cbr 210 ------- 2 1.0 6.0 21 21
- 0.57488 2 3 cbr 210 ------- 2 1.0 6.0 47 47
d 0.574884 5 7 cbr 210 ------- 2 1.0 6.0 21 21
d 0.574884 4 7 cbr 210 ------- 2 1.0 6.0 21 21
r 0.575684 7 6 cbr 210 ------- 2 1.0 6.0 14 14
+ 0.5775 1 2 cbr 210 ------- 2 1.0 6.0 74 74
- 0.5775 1 2 cbr 210 ------- 2 1.0 6.0 74 74
r 0.57793 1 2 cbr 210 ------- 2 1.0 6.0 71 71
+ 0.57793 2 3 cbr 210 ------- 2 1.0 6.0 71 71
r 0.57968 2 3 cbr 210 ------- 2 1.0 6.0 29 29
h 0.57968 3 7 cbr 210 ------- 2 1.0 6.0 29 29
+ 0.58048 3 7 cbr 210 ------- 2 1.0 6.0 22 22
- 0.58048 3 7 cbr 210 ------- 2 1.0 6.0 22 22
- 0.58048 2 3 cbr 210 ------- 2 1.0 6.0 48 48
d 0.580484 5 7 cbr 210 ------- 2 1.0 6.0 22 22
d 0.580484 4 7 cbr 210 ------- 2 1.0 6.0 22 22
+ 0.58125 1 2 cbr 210 ------- 2 1.0 6.0 75 75
- 0.58125 1 2 cbr 210 ------- 2 1.0 6.0 75 75
r 0.581284 7 6 cbr 210 ------- 2 1.0 6.0 15 15
r 0.58168 1 2 cbr 210 ------- 2 1.0 6.0 72 72
+ 0.58168 2 3 cbr 210 ------- 2 1.0 6.0 72 72
+ 0.585 1 2 cbr 210 ------- 2 1.0 6.0 76 76
- 0.585 1 2 cbr 210 ------- 2 1.0 6.0 76 76
r 0.58528 2 3 cbr 210 ------- 2 1.0 6.0 30 30
h 0.58528 3 7 cbr 210 ------- 2 1.0 6.0 30 30
r 0.58543 1 2 cbr 210 ------- 2 1.0 6.0 73 73
+ 0.58543 2 3 cbr 210 ------- 2 1.0 6.0 73 73
+ 0.58608 3 7 cbr 210 ------- 2 1.0 6.0 23 23
- 0.58608 3 7 cbr 210 ------- 2 1.0 6.0 23 23
- 0.58608 2 3 cbr 210 ------- 2 1.0 6.0 49 49
d 0.586084 5 7 cbr 210 ------- 2 1.0 6.0 23 23
d 0.586084 4 7 cbr 210 ------- 2 1.0 6.0 23 23
r 0.586884 7 6 cbr 210 ------- 2 1.0 6.0 16 16
+ 0.58875 1 2 cbr 210 ------- 2 1.0 6.0 77 77
- 0.58875 1 2 cbr 210 ------- 2 1.0 6.0 77 77
r 0.58918 1 2 cbr 210 ------- 2 1.0 6.0 74 74
+ 0.58918 2 3 cbr 210 ------- 2 1.0 6.0 74 74
r 0.59088 2 3 cbr 210 ------- 2 1.0 6.0 31 31
h 0.59088 3 7 cbr 210 ------- 2 1.0 6.0 31 31
+ 0.59168 3 7 cbr 210 ------- 2 1.0 6.0 24 24
- 0.59168 3 7 cbr 210 ------- 2 1.0 6.0 24 24
- 0.59168 2 3 cbr 210 ------- 2 1.0 6.0 50 50
d 0.591684 5 7 cbr 210 ------- 2 1.0 6.0 24 24
d 0.591684 4 7 cbr 210 ------- 2 1.0 6.0 24 24
r 0.592484 7 6 cbr 210 ------- 2 1.0 6.0 17 17
+ 0.5925 1 2 cbr 210 ------- 2 1.0 6.0 78 78
- 0.5925 1 2 cbr 210 ------- 2 1.0 6.0 78 78
r 0.59293 1 2 cbr 210 ------- 2 1.0 6.0 75 75
+ 0.59293 2 3 cbr 210 ------- 2 1.0 6.0 75 75
+ 0.59625 1 2 cbr 210 ------- 2 1.0 6.0 79 79
- 0.59625 1 2 cbr 210 ------- 2 1.0 6.0 79 79
r 0.59648 2 3 cbr 210 ------- 2 1.0 6.0 32 32
h 0.59648 3 7 cbr 210 ------- 2 1.0 6.0 32 32
r 0.59668 1 2 cbr 210 ------- 2 1.0 6.0 76 76
+ 0.59668 2 3 cbr 210 ------- 2 1.0 6.0 76 76
+ 0.59728 3 7 cbr 210 ------- 2 1.0 6.0 25 25
- 0.59728 3 7 cbr 210 ------- 2 1.0 6.0 25 25
- 0.59728 2 3 cbr 210 ------- 2 1.0 6.0 51 51
d 0.597284 5 7 cbr 210 ------- 2 1.0 6.0 25 25
d 0.597284 4 7 cbr 210 ------- 2 1.0 6.0 25 25
r 0.598084 7 6 cbr 210 ------- 2 1.0 6.0 18 18
+ 0.6 1 2 cbr 210 ------- 2 1.0 6.0 80 80
- 0.6 1 2 cbr 210 ------- 2 1.0 6.0 80 80
r 0.60043 1 2 cbr 210 ------- 2 1.0 6.0 77 77
+ 0.60043 2 3 cbr 210 ------- 2 1.0 6.0 77 77
r 0.60208 2 3 cbr 210 ------- 2 1.0 6.0 33 33
h 0.60208 3 7 cbr 210 ------- 2 1.0 6.0 33 33
+ 0.60288 3 7 cbr 210 ------- 2 1.0 6.0 26 26
- 0.60288 3 7 cbr 210 ------- 2 1.0 6.0 26 26
- 0.60288 2 3 cbr 210 ------- 2 1.0 6.0 52 52
d 0.602884 5 7 cbr 210 ------- 2 1.0 6.0 26 26
d 0.602884 4 7 cbr 210 ------- 2 1.0 6.0 26 26
r 0.603684 7 6 cbr 210 ------- 2 1.0 6.0 19 19
+ 0.60375 1 2 cbr 210 ------- 2 1.0 6.0 81 81
- 0.60375 1 2 cbr 210 ------- 2 1.0 6.0 81 81
r 0.60418 1 2 cbr 210 ------- 2 1.0 6.0 78 78
+ 0.60418 2 3 cbr 210 ------- 2 1.0 6.0 78 78
+ 0.6075 1 2 cbr 210 ------- 2 1.0 6.0 82 82
- 0.6075 1 2 cbr 210 ------- 2 1.0 6.0 82 82
r 0.60768 2 3 cbr 210 ------- 2 1.0 6.0 34 34
h 0.60768 3 7 cbr 210 ------- 2 1.0 6.0 34 34
r 0.60793 1 2 cbr 210 ------- 2 1.0 6.0 79 79
+ 0.60793 2 3 cbr 210 ------- 2 1.0 6.0 79 79
+ 0.60848 3 7 cbr 210 ------- 2 1.0 6.0 27 27
- 0.60848 3 7 cbr 210 ------- 2 1.0 6.0 27 27
- 0.60848 2 3 cbr 210 ------- 2 1.0 6.0 53 53
d 0.608484 5 7 cbr 210 ------- 2 1.0 6.0 27 27
d 0.608484 4 7 cbr 210 ------- 2 1.0 6.0 27 27
r 0.609284 7 6 cbr 210 ------- 2 1.0 6.0 20 20
+ 0.61125 1 2 cbr 210 ------- 2 1.0 6.0 83 83
- 0.61125 1 2 cbr 210 ------- 2 1.0 6.0 83 83
r 0.61168 1 2 cbr 210 ------- 2 1.0 6.0 80 80
+ 0.61168 2 3 cbr 210 ------- 2 1.0 6.0 80 80
r 0.61328 2 3 cbr 210 ------- 2 1.0 6.0 35 35
h 0.61328 3 7 cbr 210 ------- 2 1.0 6.0 35 35
+ 0.61408 3 7 cbr 210 ------- 2 1.0 6.0 28 28
- 0.61408 3 7 cbr 210 ------- 2 1.0 6.0 28 28
- 0.61408 2 3 cbr 210 ------- 2 1.0 6.0 54 54
d 0.614084 5 7 cbr 210 ------- 2 1.0 6.0 28 28
d 0.614084 4 7 cbr 210 ------- 2 1.0 6.0 28 28
r 0.614884 7 6 cbr 210 ------- 2 1.0 6.0 21 21
+ 0.615 1 2 cbr 210 ------- 2 1.0 6.0 84 84
- 0.615 1 2 cbr 210 ------- 2 1.0 6.0 84 84
r 0.61543 1 2 cbr 210 ------- 2 1.0 6.0 81 81
+ 0.61543 2 3 cbr 210 ------- 2 1.0 6.0 81 81
+ 0.61875 1 2 cbr 210 ------- 2 1.0 6.0 85 85
- 0.61875 1 2 cbr 210 ------- 2 1.0 6.0 85 85
r 0.61888 2 3 cbr 210 ------- 2 1.0 6.0 36 36
h 0.61888 3 7 cbr 210 ------- 2 1.0 6.0 36 36
r 0.61918 1 2 cbr 210 ------- 2 1.0 6.0 82 82
+ 0.61918 2 3 cbr 210 ------- 2 1.0 6.0 82 82
+ 0.61968 3 7 cbr 210 ------- 2 1.0 6.0 29 29
- 0.61968 3 7 cbr 210 ------- 2 1.0 6.0 29 29
- 0.61968 2 3 cbr 210 ------- 2 1.0 6.0 55 55
d 0.619684 5 7 cbr 210 ------- 2 1.0 6.0 29 29
d 0.619684 4 7 cbr 210 ------- 2 1.0 6.0 29 29
r 0.620484 7 6 cbr 210 ------- 2 1.0 6.0 22 22
+ 0.6225 1 2 cbr 210 ------- 2 1.0 6.0 86 86
- 0.6225 1 2 cbr 210 ------- 2 1.0 6.0 86 86
r 0.62293 1 2 cbr 210 ------- 2 1.0 6.0 83 83
+ 0.62293 2 3 cbr 210 ------- 2 1.0 6.0 83 83
r 0.62448 2 3 cbr 210 ------- 2 1.0 6.0 37 37
h 0.62448 3 7 cbr 210 ------- 2 1.0 6.0 37 37
+ 0.62528 3 7 cbr 210 ------- 2 1.0 6.0 30 30
- 0.62528 3 7 cbr 210 ------- 2 1.0 6.0 30 30
- 0.62528 2 3 cbr 210 ------- 2 1.0 6.0 56 56
d 0.625284 5 7 cbr 210 ------- 2 1.0 6.0 30 30
d 0.625284 4 7 cbr 210 ------- 2 1.0 6.0 30 30
r 0.626084 7 6 cbr 210 ------- 2 1.0 6.0 23 23
+ 0.62625 1 2 cbr 210 ------- 2 1.0 6.0 87 87
- 0.62625 1 2 cbr 210 ------- 2 1.0 6.0 87 87
r 0.62668 1 2 cbr 210 ------- 2 1.0 6.0 84 84
+ 0.62668 2 3 cbr 210 ------- 2 1.0 6.0 84 84
+ 0.63 1 2 cbr 210 ------- 2 1.0 6.0 88 88
- 0.63 1 2 cbr 210 ------- 2 1.0 6.0 88 88
r 0.63008 2 3 cbr 210 ------- 2 1.0 6.0 38 38
h 0.63008 3 7 cbr 210 ------- 2 1.0 6.0 38 38
r 0.63043 1 2 cbr 210 ------- 2 1.0 6.0 85 85
+ 0.63043 2 3 cbr 210 ------- 2 1.0 6.0 85 85
+ 0.63088 3 7 cbr 210 ------- 2 1.0 6.0 31 31
- 0.63088 3 7 cbr 210 ------- 2 1.0 6.0 31 31
- 0.63088 2 3 cbr 210 ------- 2 1.0 6.0 57 57
d 0.630884 5 7 cbr 210 ------- 2 1.0 6.0 31 31
d 0.630884 4 7 cbr 210 ------- 2 1.0 6.0 31 31
r 0.631684 7 6 cbr 210 ------- 2 1.0 6.0 24 24
+ 0.63375 1 2 cbr 210 ------- 2 1.0 6.0 89 89
- 0.63375 1 2 cbr 210 ------- 2 1.0 6.0 89 89
r 0.63418 1 2 cbr 210 ------- 2 1.0 6.0 86 86
+ 0.63418 2 3 cbr 210 ------- 2 1.0 6.0 86 86
r 0.63568 2 3 cbr 210 ------- 2 1.0 6.0 39 39
h 0.63568 3 7 cbr 210 ------- 2 1.0 6.0 39 39
+ 0.63648 3 7 cbr 210 ------- 2 1.0 6.0 32 32
- 0.63648 3 7 cbr 210 ------- 2 1.0 6.0 32 32
- 0.63648 2 3 cbr 210 ------- 2 1.0 6.0 58 58
d 0.636484 5 7 cbr 210 ------- 2 1.0 6.0 32 32
d 0.636484 4 7 cbr 210 ------- 2 1.0 6.0 32 32
r 0.637284 7 6 cbr 210 ------- 2 1.0 6.0 25 25
+ 0.6375 1 2 cbr 210 ------- 2 1.0 6.0 90 90
- 0.6375 1 2 cbr 210 ------- 2 1.0 6.0 90 90
r 0.63793 1 2 cbr 210 ------- 2 1.0 6.0 87 87
+ 0.63793 2 3 cbr 210 ------- 2 1.0 6.0 87 87
+ 0.64125 1 2 cbr 210 ------- 2 1.0 6.0 91 91
- 0.64125 1 2 cbr 210 ------- 2 1.0 6.0 91 91
r 0.64128 2 3 cbr 210 ------- 2 1.0 6.0 40 40
h 0.64128 3 7 cbr 210 ------- 2 1.0 6.0 40 40